 Gaussian 16, Revision C.01,
 Gaussian 16:  ES64L-G16RevC.01  3-Jul-2019

 -----------------------------------
 # B3LYP/6-31G(d) ADMP int=ultrafine
 -----------------------------------

 ------------------------------------------------------------
 ISOPFMS ADMP thermal decomposition simulation targeting 600K
 ------------------------------------------------------------
 Symbolic Z-matrix:
 Charge =  0 Multiplicity = 1

 SCF Done:  E(RB3LYP) =  -1038.00594431     A.U. after   31 cycles
 SCF Done:  E(RB3LYP) =  -1038.00745498     A.U. after    1 cycles
 SCF Done:  E(RB3LYP) =  -1038.00863067     A.U. after    1 cycles
 SCF Done:  E(RB3LYP) =  -1038.01007292     A.U. after    1 cycles
 SCF Done:  E(RB3LYP) =  -1038.01202299     A.U. after    1 cycles
 SCF Done:  E(RB3LYP) =  -1038.01426713     A.U. after    1 cycles
 SCF Done:  E(RB3LYP) =  -1038.01653987     A.U. after    1 cycles
 SCF Done:  E(RB3LYP) =  -1038.01878021     A.U. after    1 cycles
 SCF Done:  E(RB3LYP) =  -1038.02103548     A.U. after    1 cycles
 SCF Done:  E(RB3LYP) =  -1038.02333406     A.U. after    1 cycles
 SCF Done:  E(RB3LYP) =  -1038.09958166     A.U. after    1 cycles
 SCF Done:  E(RB3LYP) =  -1038.10193780     A.U. after    1 cycles
 SCF Done:  E(RB3LYP) =  -1038.10428548     A.U. after    1 cycles
 SCF Done:  E(RB3LYP) =  -1038.10662764     A.U. after    1 cycles
 SCF Done:  E(RB3LYP) =  -1038.10896637     A.U. after    1 cycles
 SCF Done:  E(RB3LYP) =  -1038.11131105     A.U. after    1 cycles
 SCF Done:  E(RB3LYP) =  -1038.11365445     A.U. after    1 cycles
 SCF Done:  E(RB3LYP) =  -1038.11595991     A.U. after    1 cycles
 SCF Done:  E(RB3LYP) =  -1038.11821016     A.U. after    1 cycles
 SCF Done:  E(RB3LYP) =  -1038.12045156     A.U. after    1 cycles

                          Input orientation:
 ---------------------------------------------------------------------
 Center     Atomic      Atomic             Coordinates (Angstroms)
 Number     Number       Type             X           Y           Z
 ---------------------------------------------------------------------
      1          6           0       -1.293687   -0.205311    0.026337
      2          9           0       -2.663073   -0.257526   -0.100513
      3          9           0       -1.008523    0.785135    0.866038
      4          9           0       -0.943878    0.090901   -1.321739
      5          8           0       -0.760505   -1.452309    0.316149
      6         16           0        1.110722   -0.428454    0.100114
      7          8           0        1.540013   -0.401188   -1.397143
      8          8           0        2.180070   -0.030531    1.135617
      9          8           0        0.901245    2.019185    0.519307
     10          1           0        3.164128   -0.117375    0.408803
     11          1           0        1.737469    0.378645   -2.051161
     12          1           0        0.997514    1.971020   -0.470765
 ---------------------------------------------------------------------

 Alpha  occ. eigenvalues --  -89.12963 -24.74137 -24.72407 -24.70704 -19.29258
 Alpha  occ. eigenvalues --  -19.27199 -19.17658 -19.13387 -10.45865  -8.17086
 Alpha  occ. eigenvalues --   -6.13523  -6.13336  -6.12764  -1.29671  -1.23433
 Alpha  occ. eigenvalues --   -1.22490  -1.19951  -1.14370  -0.98418  -0.96176
 Alpha  occ. eigenvalues --   -0.79988  -0.67642  -0.66308  -0.60506  -0.58895
 Alpha  occ. eigenvalues --   -0.57153  -0.55621  -0.51730  -0.50756  -0.46649
 Alpha  occ. eigenvalues --   -0.46356  -0.44982  -0.43880  -0.43538  -0.43051
 Alpha  occ. eigenvalues --   -0.40159  -0.39407  -0.38167  -0.30348  -0.29119
 Alpha  occ. eigenvalues --   -0.28078  -0.24541
 Alpha virt. eigenvalues --   -0.21101  -0.11817  -0.01041   0.03169   0.06801
 Alpha virt. eigenvalues --    0.10454   0.14612   0.19121   0.20531   0.22189
 Alpha virt. eigenvalues --    0.27094   0.35225   0.38866   0.46045   0.48810

 Mulliken charges:
               1
     1  C    0.902656
     2  F   -0.298427
     3  F   -0.213180
     4  F   -0.338745
     5  O   -0.617730
     6  S    0.944585
     7  O   -0.556526
     8  O   -0.446612
     9  O   -0.538339
    10  H    0.390882
    11  H    0.426769
    12  H    0.344666
 Sum of Mulliken charges =   0.00000

 Dipole moment (field-independent basis, Debye):
    X=              7.8654    Y=              0.8985    Z=             -3.4064  Tot=              8.6183
 Quadrupole moment (field-independent basis, Debye-Ang):
   XX=            -44.4911   YY=            -62.3168   ZZ=            -53.1471
   XY=             -2.5624   XZ=             -6.2733   YZ=             -5.3712

 Normal termination of Gaussian 16 at Wed Mar 19 15:11:22 2025.
