 Gaussian 16, Revision C.01,
 Gaussian 16:  ES64L-G16RevC.01  3-Jul-2019

 -----------------------------------
 # B3LYP/6-31G(d) ADMP int=ultrafine
 -----------------------------------

 ---------------------------------------------------------
 PFMS ADMP thermal decomposition simulation targeting 600K
 ---------------------------------------------------------
 Symbolic Z-matrix:
 Charge =  0 Multiplicity = 1

 SCF Done:  E(RB3LYP) =  -961.988834387     A.U. after   14 cycles
 SCF Done:  E(RB3LYP) =  -961.987683877     A.U. after    1 cycles
 SCF Done:  E(RB3LYP) =  -961.985738602     A.U. after    1 cycles
 SCF Done:  E(RB3LYP) =  -961.983952823     A.U. after    1 cycles
 SCF Done:  E(RB3LYP) =  -961.982599549     A.U. after    1 cycles
 SCF Done:  E(RB3LYP) =  -961.981254776     A.U. after    1 cycles
 SCF Done:  E(RB3LYP) =  -961.979547490     A.U. after    1 cycles
 SCF Done:  E(RB3LYP) =  -961.977540587     A.U. after    1 cycles
 SCF Done:  E(RB3LYP) =  -961.975483857     A.U. after    1 cycles
 SCF Done:  E(RB3LYP) =  -961.973520232     A.U. after    1 cycles
 SCF Done:  E(RB3LYP) =  -961.928827302     A.U. after    1 cycles
 SCF Done:  E(RB3LYP) =  -961.929051980     A.U. after    1 cycles
 SCF Done:  E(RB3LYP) =  -961.929372350     A.U. after    1 cycles
 SCF Done:  E(RB3LYP) =  -961.929839605     A.U. after    1 cycles
 SCF Done:  E(RB3LYP) =  -961.930501173     A.U. after    1 cycles
 SCF Done:  E(RB3LYP) =  -961.931269880     A.U. after    1 cycles
 SCF Done:  E(RB3LYP) =  -961.932015891     A.U. after    1 cycles
 SCF Done:  E(RB3LYP) =  -961.932786766     A.U. after    1 cycles
 SCF Done:  E(RB3LYP) =  -961.933754451     A.U. after    1 cycles
 SCF Done:  E(RB3LYP) =  -961.934940251     A.U. after    1 cycles

                          Input orientation:
 ---------------------------------------------------------------------
 Center     Atomic      Atomic             Coordinates (Angstroms)
 Number     Number       Type             X           Y           Z
 ---------------------------------------------------------------------
      1          6           0       -0.921540    0.036882   -0.214301
      2          9           0       -1.051402    0.153809   -1.628025
      3          9           0       -1.596870    1.051152    0.352928
      4          9           0       -1.687441   -1.153785    0.057447
      5         16           0        0.857215   -0.183896    0.276440
      6          8           0        1.036288   -0.185946    1.734955
      7          8           0        1.516715   -1.033336   -0.540698
      8          8           0        1.463262    1.376128   -0.187927
      9          1           0        1.769480    1.940789    0.764530
 ---------------------------------------------------------------------

 Alpha  occ. eigenvalues --  -89.17446 -24.77507 -24.77335 -24.77280 -19.24143
 Alpha  occ. eigenvalues --  -19.19712 -19.19484 -10.50030  -8.19955  -6.16517
 Alpha  occ. eigenvalues --   -6.16294  -6.16268  -1.34154  -1.25661  -1.25510
 Alpha  occ. eigenvalues --   -1.18895  -1.07565  -1.05494  -0.79584  -0.69909
 Alpha  occ. eigenvalues --   -0.63493  -0.62132  -0.61773  -0.55923  -0.51583
 Alpha  occ. eigenvalues --   -0.49795  -0.49632  -0.49334  -0.47119  -0.46141
 Alpha  occ. eigenvalues --   -0.45968  -0.44018  -0.40598  -0.38154  -0.36324
 Alpha  occ. eigenvalues --   -0.36262  -0.34152
 Alpha virt. eigenvalues --   -0.01729  -0.01203   0.02265   0.05763   0.09257
 Alpha virt. eigenvalues --    0.14071   0.15864   0.18596   0.28639   0.31452
 Alpha virt. eigenvalues --    0.34274   0.38724   0.45807   0.48571   0.51071

 Mulliken charges:
               1
     1  C    0.643374
     2  F   -0.263075
     3  F   -0.204487
     4  F   -0.276144
     5  S    1.180679
     6  O   -0.477930
     7  O   -0.355594
     8  O   -0.646508
     9  H    0.399686
 Sum of Mulliken charges =  -0.00000

 Dipole moment (field-independent basis, Debye):
    X=             -0.3357    Y=              1.6911    Z=              0.6941  Tot=              1.8585
 Quadrupole moment (field-independent basis, Debye-Ang):
   XX=            -49.7368   YY=            -47.0127   ZZ=            -52.7645
   XY=              2.9799   XZ=              1.5946   YZ=              2.8719

 Normal termination of Gaussian 16 at Wed Mar 19 15:13:49 2025.
