 Gaussian 16, Revision C.01,
 Gaussian 16:  ES64L-G16RevC.01  3-Jul-2019

 -----------------------------------
 # B3LYP/6-31G(d) ADMP int=ultrafine
 -----------------------------------

 -------------------------------------------------------
 HF ADMP thermal decomposition simulation targeting 600K
 -------------------------------------------------------
 Symbolic Z-matrix:
 Charge =  0 Multiplicity = 1

 SCF Done:  E(RB3LYP) =  -100.418557075     A.U. after    9 cycles
 SCF Done:  E(RB3LYP) =  -100.419284089     A.U. after    1 cycles
 SCF Done:  E(RB3LYP) =  -100.418311526     A.U. after    1 cycles
 SCF Done:  E(RB3LYP) =  -100.416447395     A.U. after    1 cycles
 SCF Done:  E(RB3LYP) =  -100.414105126     A.U. after    1 cycles
 SCF Done:  E(RB3LYP) =  -100.410754986     A.U. after    1 cycles
 SCF Done:  E(RB3LYP) =  -100.405531619     A.U. after    1 cycles
 SCF Done:  E(RB3LYP) =  -100.398318120     A.U. after    1 cycles
 SCF Done:  E(RB3LYP) =  -100.389987674     A.U. after    1 cycles
 SCF Done:  E(RB3LYP) =  -100.381467279     A.U. after    1 cycles
 SCF Done:  E(RB3LYP) =  -100.391178628     A.U. after    1 cycles
 SCF Done:  E(RB3LYP) =  -100.387384400     A.U. after    1 cycles
 SCF Done:  E(RB3LYP) =  -100.383644230     A.U. after    1 cycles
 SCF Done:  E(RB3LYP) =  -100.379417149     A.U. after    1 cycles
 SCF Done:  E(RB3LYP) =  -100.374526494     A.U. after    1 cycles
 SCF Done:  E(RB3LYP) =  -100.369495770     A.U. after    1 cycles
 SCF Done:  E(RB3LYP) =  -100.365122766     A.U. after    1 cycles
 SCF Done:  E(RB3LYP) =  -100.361752299     A.U. after    1 cycles
 SCF Done:  E(RB3LYP) =  -100.359025137     A.U. after    1 cycles
 SCF Done:  E(RB3LYP) =  -100.356333398     A.U. after    1 cycles

                          Input orientation:
 ---------------------------------------------------------------------
 Center     Atomic      Atomic             Coordinates (Angstroms)
 Number     Number       Type             X           Y           Z
 ---------------------------------------------------------------------
      1          9           0        0.064694    0.000000    0.000000
      2          1           0       -1.219542   -0.000000   -0.000000
 ---------------------------------------------------------------------

 Alpha  occ. eigenvalues --  -24.66487  -1.15510  -0.51017  -0.37276  -0.37276
 Alpha virt. eigenvalues --    0.04678   0.76984   1.08865   1.18088   1.18088
 Alpha virt. eigenvalues --    1.44151   1.80929   1.80929   1.87373   1.87373
 Alpha virt. eigenvalues --    2.52749   3.64842

 Mulliken charges:
               1
     1  F   -0.474028
     2  H    0.474028
 Sum of Mulliken charges =  -0.00000

 Dipole moment (field-independent basis, Debye):
    X=             -2.6545    Y=             -0.0000    Z=             -0.0000  Tot=              2.6545
 Quadrupole moment (field-independent basis, Debye-Ang):
   XX=             -1.6482   YY=             -5.6592   ZZ=             -5.6592
   XY=              0.0000   XZ=              0.0000   YZ=             -0.0000

 Normal termination of Gaussian 16 at Wed Mar 19 15:08:15 2025.
