 Gaussian 16, Revision C.01,
 Gaussian 16:  ES64L-G16RevC.01  3-Jul-2019

 -----------------------------------
 # B3LYP/6-31G(d) ADMP int=ultrafine
 -----------------------------------

 ------------------------------------------------------------------
 TS3M_Product1 ADMP thermal decomposition simulation targeting 600K
 ------------------------------------------------------------------
 Symbolic Z-matrix:
 Charge =  0 Multiplicity = 2

 SCF Done:  E(UB3LYP) =  -624.342292935     A.U. after   18 cycles
 SCF Done:  E(UB3LYP) =  -624.342190036     A.U. after    1 cycles
 SCF Done:  E(UB3LYP) =  -624.341445507     A.U. after    1 cycles
 SCF Done:  E(UB3LYP) =  -624.340621676     A.U. after    1 cycles
 SCF Done:  E(UB3LYP) =  -624.340069978     A.U. after    1 cycles
 SCF Done:  E(UB3LYP) =  -624.339693251     A.U. after    1 cycles
 SCF Done:  E(UB3LYP) =  -624.339187322     A.U. after    1 cycles
 SCF Done:  E(UB3LYP) =  -624.338420335     A.U. after    1 cycles
 SCF Done:  E(UB3LYP) =  -624.337522735     A.U. after    1 cycles
 SCF Done:  E(UB3LYP) =  -624.336665603     A.U. after    1 cycles
 SCF Done:  E(UB3LYP) =  -624.311429336     A.U. after    1 cycles
 SCF Done:  E(UB3LYP) =  -624.309283772     A.U. after    1 cycles
 SCF Done:  E(UB3LYP) =  -624.307238383     A.U. after    1 cycles
 SCF Done:  E(UB3LYP) =  -624.305317673     A.U. after    1 cycles
 SCF Done:  E(UB3LYP) =  -624.303358495     A.U. after    1 cycles
 SCF Done:  E(UB3LYP) =  -624.301210170     A.U. after    1 cycles
 SCF Done:  E(UB3LYP) =  -624.298936895     A.U. after    1 cycles
 SCF Done:  E(UB3LYP) =  -624.296763553     A.U. after    1 cycles
 SCF Done:  E(UB3LYP) =  -624.294823246     A.U. after    1 cycles
 SCF Done:  E(UB3LYP) =  -624.293020202     A.U. after    1 cycles

                          Input orientation:
 ---------------------------------------------------------------------
 Center     Atomic      Atomic             Coordinates (Angstroms)
 Number     Number       Type             X           Y           Z
 ---------------------------------------------------------------------
      1          8           0       -0.876961   -0.855070   -0.587552
      2         16           0       -0.180724   -0.045704    0.230769
      3          8           0        1.326980   -0.449806    0.233224
      4          8           0       -0.228974    1.414756   -0.081139
      5          1           0        2.225118   -0.293993   -0.409699
 ---------------------------------------------------------------------

 Alpha  occ. eigenvalues --  -89.12511 -19.23276 -19.20682 -19.20682  -8.15813
 Alpha  occ. eigenvalues --   -6.12281  -6.12062  -6.11997  -1.16161  -1.06085
 Alpha  occ. eigenvalues --   -1.03716  -0.70142  -0.56435  -0.52269  -0.50475
 Alpha  occ. eigenvalues --   -0.45344  -0.40999  -0.37420  -0.36270  -0.32768
 Alpha  occ. eigenvalues --   -0.32320
 Alpha virt. eigenvalues --   -0.00434   0.05259   0.05333   0.08376   0.24506
 Alpha virt. eigenvalues --    0.31943   0.33484   0.35669   0.57248   0.59875
 Alpha virt. eigenvalues --    0.66865   0.74037   0.78382   0.82210   0.88136

  Beta  occ. eigenvalues --  -89.12342 -19.23038 -19.19792 -19.19792  -8.15622
  Beta  occ. eigenvalues --   -6.12183  -6.12009  -6.11493  -1.14996  -1.04877
  Beta  occ. eigenvalues --   -1.01480  -0.68043  -0.55286  -0.50473  -0.48656
  Beta  occ. eigenvalues --   -0.43823  -0.39510  -0.36414  -0.32626  -0.31952
  Beta virt. eigenvalues --   -0.20834   0.00978   0.05774   0.07395   0.09008
  Beta virt. eigenvalues --    0.25428   0.32081   0.34093   0.35992   0.58465
  Beta virt. eigenvalues --    0.60610   0.69463   0.74537   0.79360   0.83032

 Mulliken charges and spin densities:
               1          2
     1  O   -0.387213   0.157522
     2  S    1.014944   0.384947
     3  O   -0.624024   0.003873
     4  O   -0.444042   0.388845
     5  H    0.440335   0.064813
 Sum of Mulliken charges =  -0.00000   1.00000

 Dipole moment (field-independent basis, Debye):
    X=              2.6221    Y=             -0.7240    Z=              0.0464  Tot=              2.7206
 Quadrupole moment (field-independent basis, Debye-Ang):
   XX=            -22.9407   YY=            -33.0576   ZZ=            -27.4781
   XY=             -0.4833   XZ=             -4.1536   YZ=             -0.5592

 Normal termination of Gaussian 16 at Wed Mar 19 15:16:19 2025.
