 Gaussian 16, Revision C.01,
 Gaussian 16:  ES64L-G16RevC.01  3-Jul-2019

 -----------------------------------------
 # B3LYP/6-31G(d) pop=full density=current
 -----------------------------------------

 -----------------
 PFMS Time step 40
 -----------------
 Symbolic Z-matrix:
 Charge =  0 Multiplicity = 1

                         Standard orientation:
 ---------------------------------------------------------------------
 Center     Atomic      Atomic             Coordinates (Angstroms)
 Number     Number       Type             X           Y           Z
 ---------------------------------------------------------------------
      1          6           0        0.983162    0.063877   -0.037713
      2          9           0        1.496976    0.147447    1.282208
      3          9           0        1.425972    1.142537   -0.717708
      4          9           0        1.694571   -1.058952   -0.574014
      5         16           0       -0.844647   -0.229474   -0.036185
      6          8           0       -1.410303   -0.186535   -1.391342
      7          8           0       -1.225307   -1.157483    0.880310
      8          8           0       -1.358663    1.261449    0.646260
      9          1           0       -1.988114    1.869605   -0.190970
 ---------------------------------------------------------------------

 SCF Done:  E(RB3LYP) =  -961.930350221     A.U. after   15 cycles

 The electronic state is 1-A.
 Alpha  occ. eigenvalues --  -89.17281 -24.78815 -24.76006 -24.75637 -19.23544
 Alpha  occ. eigenvalues --  -19.21345 -19.19727 -10.50214  -8.20040  -6.16517
 Alpha  occ. eigenvalues --   -6.16415  -6.16350  -1.32596  -1.24901  -1.22331
 Alpha  occ. eigenvalues --   -1.20684  -1.07557  -1.01868  -0.79373  -0.68121
 Alpha  occ. eigenvalues --   -0.61561  -0.60604  -0.59365  -0.55248  -0.51281
 Alpha  occ. eigenvalues --   -0.49864  -0.48742  -0.48022  -0.46230  -0.45535
 Alpha  occ. eigenvalues --   -0.44434  -0.42833  -0.40570  -0.39156  -0.36970
 Alpha  occ. eigenvalues --   -0.35616  -0.34503
 Alpha virt. eigenvalues --   -0.05685  -0.03362  -0.00004   0.01760   0.08381
 Alpha virt. eigenvalues --    0.11317   0.13467   0.19281   0.28487   0.31088
 Alpha virt. eigenvalues --    0.33755   0.40350   0.45703   0.49758   0.51879

 Mulliken charges:
               1
     1  C    0.625137
     2  F   -0.255097
     3  F   -0.211339
     4  F   -0.266680
     5  S    1.171458
     6  O   -0.487166
     7  O   -0.358743
     8  O   -0.633474
     9  H    0.415904
 Sum of Mulliken charges =  -0.00000

 Dipole moment (field-independent basis, Debye):
    X=             -0.1764    Y=              2.0577    Z=             -0.6797  Tot=              2.1742
 Quadrupole moment (field-independent basis, Debye-Ang):
   XX=            -48.2880   YY=            -46.7847   ZZ=            -53.6852
   XY=             -4.6079   XZ=              0.5786   YZ=             -1.6180

 Normal termination of Gaussian 16 at Thu Mar 20 00:10:54 2025.
