 Gaussian 16, Revision C.01,
 Gaussian 16:  ES64L-G16RevC.01  3-Jul-2019

 -----------------------------------------
 # B3LYP/6-31G(d) pop=full density=current
 -----------------------------------------

 ----------------
 PFMS Time step 5
 ----------------
 Symbolic Z-matrix:
 Charge =  0 Multiplicity = 1

                         Standard orientation:
 ---------------------------------------------------------------------
 Center     Atomic      Atomic             Coordinates (Angstroms)
 Number     Number       Type             X           Y           Z
 ---------------------------------------------------------------------
      1          6           0       -0.998324    0.013580    0.008600
      2          9           0       -1.497571   -0.228271   -1.248132
      3          9           0       -1.418468    1.262214    0.362195
      4          9           0       -1.639832   -0.867015    0.848697
      5         16           0        0.845261   -0.164019    0.083596
      6          8           0        1.367447    0.261407    1.373500
      7          8           0        1.289705   -1.386536   -0.518887
      8          8           0        1.292015    1.038067   -0.937308
      9          1           0        1.875270    1.736965   -0.392422
 ---------------------------------------------------------------------

 SCF Done:  E(RB3LYP) =  -961.981244448     A.U. after   14 cycles

 The electronic state is 1-A.
 Alpha  occ. eigenvalues --  -89.17400 -24.77504 -24.77119 -24.76981 -19.24261
 Alpha  occ. eigenvalues --  -19.19969 -19.19441 -10.50016  -8.19930  -6.16478
 Alpha  occ. eigenvalues --   -6.16270  -6.16256  -1.33628  -1.25416  -1.24929
 Alpha  occ. eigenvalues --   -1.18671  -1.06691  -1.05347  -0.79458  -0.69213
 Alpha  occ. eigenvalues --   -0.62705  -0.61844  -0.61126  -0.55571  -0.51340
 Alpha  occ. eigenvalues --   -0.49511  -0.49329  -0.49180  -0.46967  -0.45929
 Alpha  occ. eigenvalues --   -0.45665  -0.43805  -0.40336  -0.38087  -0.36681
 Alpha  occ. eigenvalues --   -0.36166  -0.34223
 Alpha virt. eigenvalues --   -0.02726  -0.01566   0.01984   0.04013   0.09252
 Alpha virt. eigenvalues --    0.13439   0.15447   0.18735   0.28528   0.31378
 Alpha virt. eigenvalues --    0.34215   0.38930   0.45857   0.48787   0.51272

 Mulliken charges:
               1
     1  C    0.625723
     2  F   -0.234774
     3  F   -0.233173
     4  F   -0.237685
     5  S    1.158512
     6  O   -0.485797
     7  O   -0.419351
     8  O   -0.627887
     9  H    0.454432
 Sum of Mulliken charges =  -0.00000

 Dipole moment (field-independent basis, Debye):
    X=             -0.1520    Y=              2.2952    Z=             -0.1839  Tot=              2.3076
 Quadrupole moment (field-independent basis, Debye-Ang):
   XX=            -47.9897   YY=            -47.3759   ZZ=            -53.5919
   XY=              5.5642   XZ=             -0.9823   YZ=             -1.1463

 Normal termination of Gaussian 16 at Thu Mar 20 00:08:42 2025.
