 Gaussian 16, Revision C.01,
 Gaussian 16:  ES64L-G16RevC.01  3-Jul-2019

 -----------------------------------------
 # B3LYP/6-31G(d) pop=full density=current
 -----------------------------------------

 -----------------
 PFMS Time step 10
 -----------------
 Symbolic Z-matrix:
 Charge =  0 Multiplicity = 1

                         Standard orientation:
 ---------------------------------------------------------------------
 Center     Atomic      Atomic             Coordinates (Angstroms)
 Number     Number       Type             X           Y           Z
 ---------------------------------------------------------------------
      1          6           0       -0.993973    0.022639    0.011048
      2          9           0       -1.498744   -0.188371   -1.257977
      3          9           0       -1.418807    1.257631    0.401080
      4          9           0       -1.649006   -0.889304    0.823349
      5         16           0        0.844565   -0.174969    0.080032
      6          8           0        1.374621    0.212017    1.381813
      7          8           0        1.278753   -1.366542   -0.559770
      8          8           0        1.301428    1.061962   -0.912883
      9          1           0        1.911394    1.784563   -0.318139
 ---------------------------------------------------------------------

 SCF Done:  E(RB3LYP) =  -961.970886404     A.U. after   14 cycles

 The electronic state is 1-A.
 Alpha  occ. eigenvalues --  -89.17361 -24.77651 -24.76830 -24.76768 -19.24279
 Alpha  occ. eigenvalues --  -19.20182 -19.19421 -10.50016  -8.19917  -6.16452
 Alpha  occ. eigenvalues --   -6.16255  -6.16251  -1.33273  -1.25305  -1.24422
 Alpha  occ. eigenvalues --   -1.18722  -1.06681  -1.04655  -0.79402  -0.68807
 Alpha  occ. eigenvalues --   -0.62231  -0.61610  -0.60629  -0.55324  -0.51193
 Alpha  occ. eigenvalues --   -0.49390  -0.49189  -0.48952  -0.46811  -0.45820
 Alpha  occ. eigenvalues --   -0.45398  -0.43635  -0.40229  -0.38071  -0.36923
 Alpha  occ. eigenvalues --   -0.36063  -0.34255
 Alpha virt. eigenvalues --   -0.03763  -0.01873   0.01691   0.03015   0.09299
 Alpha virt. eigenvalues --    0.12975   0.15116   0.18847   0.28475   0.31318
 Alpha virt. eigenvalues --    0.34157   0.39117   0.45887   0.48975   0.51418

 Mulliken charges:
               1
     1  C    0.626809
     2  F   -0.239078
     3  F   -0.230476
     4  F   -0.243370
     5  S    1.162947
     6  O   -0.487008
     7  O   -0.409120
     8  O   -0.627583
     9  H    0.446880
 Sum of Mulliken charges =  -0.00000

 Dipole moment (field-independent basis, Debye):
    X=             -0.0428    Y=              2.3160    Z=             -0.0706  Tot=              2.3175
 Quadrupole moment (field-independent basis, Debye-Ang):
   XX=            -47.9487   YY=            -47.0676   ZZ=            -53.7590
   XY=              5.5737   XZ=             -0.7703   YZ=             -0.8244

 Normal termination of Gaussian 16 at Thu Mar 20 00:09:01 2025.
