 Gaussian 16, Revision C.01,
 Gaussian 16:  ES64L-G16RevC.01  3-Jul-2019

 -----------------------------------------
 # B3LYP/6-31G(d) pop=full density=current
 -----------------------------------------

 ----------------
 PFMS Time step 0
 ----------------
 Symbolic Z-matrix:
 Charge =  0 Multiplicity = 1

                         Standard orientation:
 ---------------------------------------------------------------------
 Center     Atomic      Atomic             Coordinates (Angstroms)
 Number     Number       Type             X           Y           Z
 ---------------------------------------------------------------------
      1          6           0       -1.003361    0.003976    0.006577
      2          9           0       -1.496094   -0.265840   -1.237337
      3          9           0       -1.418249    1.264647    0.325544
      4          9           0       -1.630276   -0.845652    0.871781
      5         16           0        0.846147   -0.152671    0.086327
      6          8           0        1.359962    0.308355    1.364200
      7          8           0        1.301067   -1.404389   -0.479724
      8          8           0        1.282590    1.015889   -0.958979
      9          1           0        1.834433    1.681656   -0.464567
 ---------------------------------------------------------------------

 SCF Done:  E(RB3LYP) =  -961.988198167     A.U. after   14 cycles

 The electronic state is 1-A.
 Alpha  occ. eigenvalues --  -89.17440 -24.77436 -24.77364 -24.77225 -19.24172
 Alpha  occ. eigenvalues --  -19.19756 -19.19477 -10.50027  -8.19952  -6.16512
 Alpha  occ. eigenvalues --   -6.16292  -6.16267  -1.34056  -1.25573  -1.25450
 Alpha  occ. eigenvalues --   -1.18832  -1.07354  -1.05526  -0.79560  -0.69775
 Alpha  occ. eigenvalues --   -0.63348  -0.62081  -0.61662  -0.55862  -0.51539
 Alpha  occ. eigenvalues --   -0.49738  -0.49571  -0.49313  -0.47097  -0.46089
 Alpha  occ. eigenvalues --   -0.45926  -0.43981  -0.40545  -0.38143  -0.36375
 Alpha  occ. eigenvalues --   -0.36262  -0.34168
 Alpha virt. eigenvalues --   -0.01872  -0.01263   0.02219   0.05452   0.09237
 Alpha virt. eigenvalues --    0.13956   0.15793   0.18618   0.28615   0.31438
 Alpha virt. eigenvalues --    0.34263   0.38756   0.45815   0.48606   0.51107

 Mulliken charges:
               1
     1  C    0.623987
     2  F   -0.229861
     3  F   -0.235856
     4  F   -0.231319
     5  S    1.152778
     6  O   -0.484256
     7  O   -0.429726
     8  O   -0.624091
     9  H    0.458343
 Sum of Mulliken charges =  -0.00000

 Dipole moment (field-independent basis, Debye):
    X=             -0.2820    Y=              2.2528    Z=             -0.2958  Tot=              2.2896
 Quadrupole moment (field-independent basis, Debye-Ang):
   XX=            -48.0501   YY=            -47.7402   ZZ=            -53.3785
   XY=              5.5127   XZ=             -1.1829   YZ=             -1.4335

 Normal termination of Gaussian 16 at Thu Mar 20 00:08:24 2025.
