 Gaussian 16, Revision C.01,
 Gaussian 16:  ES64L-G16RevC.01  3-Jul-2019

 -----------------------------------------
 # B3LYP/6-31G(d) pop=full density=current
 -----------------------------------------

 -----------------
 PFMS Time step 20
 -----------------
 Symbolic Z-matrix:
 Charge =  0 Multiplicity = 1

                         Standard orientation:
 ---------------------------------------------------------------------
 Center     Atomic      Atomic             Coordinates (Angstroms)
 Number     Number       Type             X           Y           Z
 ---------------------------------------------------------------------
      1          6           0       -0.987159    0.039593    0.017654
      2          9           0       -1.500005   -0.095686   -1.274718
      3          9           0       -1.419992    1.238556    0.490910
      4          9           0       -1.666158   -0.940025    0.760863
      5         16           0        0.843729   -0.196029    0.069748
      6          8           0        1.388100    0.099559    1.395026
      7          8           0        1.258181   -1.315940   -0.652502
      8          8           0        1.320376    1.118822   -0.849624
      9          1           0        1.965429    1.853778   -0.158585
 ---------------------------------------------------------------------

 SCF Done:  E(RB3LYP) =  -961.949511756     A.U. after   14 cycles

 The electronic state is 1-A.
 Alpha  occ. eigenvalues --  -89.17303 -24.77999 -24.76412 -24.76320 -19.24157
 Alpha  occ. eigenvalues --  -19.20617 -19.19438 -10.50047  -8.19923  -6.16435
 Alpha  occ. eigenvalues --   -6.16275  -6.16253  -1.32778  -1.25117  -1.23528
 Alpha  occ. eigenvalues --   -1.19229  -1.07015  -1.03279  -0.79370  -0.68318
 Alpha  occ. eigenvalues --   -0.61729  -0.61129  -0.59875  -0.55031  -0.51065
 Alpha  occ. eigenvalues --   -0.49426  -0.48925  -0.48520  -0.46473  -0.45656
 Alpha  occ. eigenvalues --   -0.44947  -0.43310  -0.40245  -0.38313  -0.37090
 Alpha  occ. eigenvalues --   -0.35874  -0.34298
 Alpha virt. eigenvalues --   -0.05600  -0.02481   0.00974   0.02146   0.09233
 Alpha virt. eigenvalues --    0.12210   0.14494   0.19048   0.28447   0.31202
 Alpha virt. eigenvalues --    0.34010   0.39540   0.45893   0.49337   0.51655

 Mulliken charges:
               1
     1  C    0.627475
     2  F   -0.246349
     3  F   -0.224389
     4  F   -0.253289
     5  S    1.168404
     6  O   -0.488536
     7  O   -0.389098
     8  O   -0.623982
     9  H    0.429765
 Sum of Mulliken charges =  -0.00000

 Dipole moment (field-independent basis, Debye):
    X=              0.1129    Y=              2.2961    Z=              0.1677  Tot=              2.3050
 Quadrupole moment (field-independent basis, Debye-Ang):
   XX=            -47.9515   YY=            -46.6450   ZZ=            -53.9539
   XY=              5.4325   XZ=             -0.3163   YZ=             -0.0733

 Normal termination of Gaussian 16 at Thu Mar 20 00:09:39 2025.
