 Gaussian 16, Revision C.01,
 Gaussian 16:  ES64L-G16RevC.01  3-Jul-2019

 -----------------------------------------
 # B3LYP/6-31G(d) pop=full density=current
 -----------------------------------------

 -----------------
 PFMS Time step 15
 -----------------
 Symbolic Z-matrix:
 Charge =  0 Multiplicity = 1

                         Standard orientation:
 ---------------------------------------------------------------------
 Center     Atomic      Atomic             Coordinates (Angstroms)
 Number     Number       Type             X           Y           Z
 ---------------------------------------------------------------------
      1          6           0       -0.990187    0.031398    0.014073
      2          9           0       -1.499581   -0.144558   -1.266944
      3          9           0       -1.419317    1.250042    0.443681
      4          9           0       -1.657802   -0.913510    0.794434
      5         16           0        0.844048   -0.185681    0.075465
      6          8           0        1.381526    0.158472    1.389111
      7          8           0        1.268213   -1.343307   -0.604001
      8          8           0        1.310883    1.088702   -0.884102
      9          1           0        1.941682    1.823804   -0.240488
 ---------------------------------------------------------------------

 SCF Done:  E(RB3LYP) =  -961.959781687     A.U. after   14 cycles

 The electronic state is 1-A.
 Alpha  occ. eigenvalues --  -89.17329 -24.77818 -24.76577 -24.76562 -19.24240
 Alpha  occ. eigenvalues --  -19.20401 -19.19420 -10.50027  -8.19915  -6.16438
 Alpha  occ. eigenvalues --   -6.16259  -6.16249  -1.32988  -1.25205  -1.23951
 Alpha  occ. eigenvalues --   -1.18924  -1.06843  -1.03919  -0.79378  -0.68518
 Alpha  occ. eigenvalues --   -0.61919  -0.61365  -0.60205  -0.55141  -0.51102
 Alpha  occ. eigenvalues --   -0.49379  -0.49048  -0.48721  -0.46642  -0.45730
 Alpha  occ. eigenvalues --   -0.45156  -0.43468  -0.40208  -0.38143  -0.37062
 Alpha  occ. eigenvalues --   -0.35965  -0.34278
 Alpha virt. eigenvalues --   -0.04785  -0.02182   0.01337   0.02451   0.09300
 Alpha virt. eigenvalues --    0.12561   0.14797   0.18952   0.28450   0.31258
 Alpha virt. eigenvalues --    0.34087   0.39321   0.45899   0.49162   0.51547

 Mulliken charges:
               1
     1  C    0.627374
     2  F   -0.242971
     3  F   -0.227511
     4  F   -0.248596
     5  S    1.166187
     6  O   -0.487932
     7  O   -0.398939
     8  O   -0.625724
     9  H    0.438113
 Sum of Mulliken charges =  -0.00000

 Dipole moment (field-independent basis, Debye):
    X=              0.0459    Y=              2.3161    Z=              0.0464  Tot=              2.3170
 Quadrupole moment (field-independent basis, Debye-Ang):
   XX=            -47.9357   YY=            -46.8203   ZZ=            -53.8810
   XY=              5.5291   XZ=             -0.5481   YZ=             -0.4659

 Normal termination of Gaussian 16 at Thu Mar 20 00:09:20 2025.
