 Gaussian 16, Revision C.01,
 Gaussian 16:  ES64L-G16RevC.01  3-Jul-2019

 -----------------------------------------
 # B3LYP/6-31G(d) pop=full density=current
 -----------------------------------------

 -----------------
 PFMS Time step 45
 -----------------
 Symbolic Z-matrix:
 Charge =  0 Multiplicity = 1

                         Standard orientation:
 ---------------------------------------------------------------------
 Center     Atomic      Atomic             Coordinates (Angstroms)
 Number     Number       Type             X           Y           Z
 ---------------------------------------------------------------------
      1          6           0        0.984475    0.067402   -0.043781
      2          9           0        1.494922    0.217158    1.275321
      3          9           0        1.428364    1.104456   -0.779366
      4          9           0        1.700283   -1.087822   -0.514694
      5         16           0       -0.845444   -0.235017   -0.025915
      6          8           0       -1.414772   -0.267244   -1.380294
      7          8           0       -1.219152   -1.104917    0.941320
      8          8           0       -1.368279    1.297782    0.578907
      9          1           0       -1.974249    1.846769   -0.273484
 ---------------------------------------------------------------------

 SCF Done:  E(RB3LYP) =  -961.932902715     A.U. after   15 cycles

 The electronic state is 1-A.
 Alpha  occ. eigenvalues --  -89.17306 -24.79041 -24.75972 -24.75544 -19.23300
 Alpha  occ. eigenvalues --  -19.21479 -19.19857 -10.50278  -8.20089  -6.16561
 Alpha  occ. eigenvalues --   -6.16466  -6.16395  -1.32698  -1.24904  -1.22160
 Alpha  occ. eigenvalues --   -1.20955  -1.07692  -1.01864  -0.79371  -0.68194
 Alpha  occ. eigenvalues --   -0.61633  -0.60614  -0.59392  -0.55433  -0.51375
 Alpha  occ. eigenvalues --   -0.50005  -0.48778  -0.47970  -0.46358  -0.45560
 Alpha  occ. eigenvalues --   -0.44387  -0.42772  -0.40645  -0.39305  -0.36990
 Alpha  occ. eigenvalues --   -0.35596  -0.34617
 Alpha virt. eigenvalues --   -0.05138  -0.03388   0.00098   0.01837   0.08104
 Alpha virt. eigenvalues --    0.11156   0.13239   0.19298   0.28489   0.31104
 Alpha virt. eigenvalues --    0.33736   0.40495   0.45615   0.49768   0.51887

 Mulliken charges:
               1
     1  C    0.624237
     2  F   -0.256093
     3  F   -0.207969
     4  F   -0.268750
     5  S    1.171149
     6  O   -0.485685
     7  O   -0.354404
     8  O   -0.641505
     9  H    0.419020
 Sum of Mulliken charges =  -0.00000

 Dipole moment (field-independent basis, Debye):
    X=             -0.1408    Y=              1.9648    Z=             -0.8061  Tot=              2.1284
 Quadrupole moment (field-independent basis, Debye-Ang):
   XX=            -48.4308   YY=            -47.0316   ZZ=            -53.4783
   XY=             -4.3088   XZ=              0.7566   YZ=             -1.9956

 Normal termination of Gaussian 16 at Thu Mar 20 00:11:12 2025.
