 Gaussian 16, Revision C.01,
 Gaussian 16:  ES64L-G16RevC.01  3-Jul-2019

 -----------------------------------------
 # B3LYP/6-31G(d) pop=full density=current
 -----------------------------------------

 -----------------
 PFMS Time step 30
 -----------------
 Symbolic Z-matrix:
 Charge =  0 Multiplicity = 1

                         Standard orientation:
 ---------------------------------------------------------------------
 Center     Atomic      Atomic             Coordinates (Angstroms)
 Number     Number       Type             X           Y           Z
 ---------------------------------------------------------------------
      1          6           0       -0.983326    0.053719    0.026626
      2          9           0       -1.499536    0.016255   -1.284413
      3          9           0       -1.422274    1.201919    0.597344
      4          9           0       -1.681461   -0.997870    0.678818
      5         16           0        0.843741   -0.214677    0.055033
      6          8           0        1.400075   -0.033395    1.400077
      7          8           0        1.240128   -1.247641   -0.760241
      8          8           0        1.339416    1.186763   -0.762408
      9          1           0        1.992587    1.883978    0.014556
 ---------------------------------------------------------------------

 SCF Done:  E(RB3LYP) =  -961.934320556     A.U. after   15 cycles

 The electronic state is 1-A.
 Alpha  occ. eigenvalues --  -89.17272 -24.78390 -24.76154 -24.75916 -19.23912
 Alpha  occ. eigenvalues --  -19.21015 -19.19537 -10.50113  -8.19965  -6.16457
 Alpha  occ. eigenvalues --   -6.16331  -6.16286  -1.32559  -1.24970  -1.22823
 Alpha  occ. eigenvalues --   -1.19976  -1.07304  -1.02328  -0.79373  -0.68113
 Alpha  occ. eigenvalues --   -0.61549  -0.60758  -0.59475  -0.55017  -0.51120
 Alpha  occ. eigenvalues --   -0.49609  -0.48766  -0.48209  -0.46219  -0.45553
 Alpha  occ. eigenvalues --   -0.44623  -0.43030  -0.40399  -0.38763  -0.37011
 Alpha  occ. eigenvalues --   -0.35719  -0.34360
 Alpha virt. eigenvalues --   -0.06321  -0.03015   0.00344   0.01836   0.08893
 Alpha virt. eigenvalues --    0.11685   0.13949   0.19196   0.28467   0.31115
 Alpha virt. eigenvalues --    0.33859   0.39975   0.45832   0.49618   0.51809

 Mulliken charges:
               1
     1  C    0.626693
     2  F   -0.251716
     3  F   -0.217942
     4  F   -0.261079
     5  S    1.170838
     6  O   -0.488654
     7  O   -0.371678
     8  O   -0.624185
     9  H    0.417724
 Sum of Mulliken charges =  -0.00000

 Dipole moment (field-independent basis, Debye):
    X=              0.1875    Y=              2.2075    Z=              0.4204  Tot=              2.2550
 Quadrupole moment (field-independent basis, Debye-Ang):
   XX=            -48.0660   YY=            -46.5363   ZZ=            -53.9373
   XY=              5.1053   XZ=              0.1503   YZ=              0.7722

 Normal termination of Gaussian 16 at Thu Mar 20 00:10:17 2025.
