 Gaussian 16, Revision C.01,
 Gaussian 16:  ES64L-G16RevC.01  3-Jul-2019

 -----------------------------------------
 # B3LYP/6-31G(d) pop=full density=current
 -----------------------------------------

 -----------------
 PFMS Time step 35
 -----------------
 Symbolic Z-matrix:
 Charge =  0 Multiplicity = 1

                         Standard orientation:
 ---------------------------------------------------------------------
 Center     Atomic      Atomic             Coordinates (Angstroms)
 Number     Number       Type             X           Y           Z
 ---------------------------------------------------------------------
      1          6           0       -0.982835    0.059319    0.031969
      2          9           0       -1.498513    0.079913   -1.285122
      3          9           0       -1.423927    1.175171    0.656403
      4          9           0       -1.688289   -1.028533    0.629090
      5         16           0        0.844087   -0.222644    0.046025
      6          8           0        1.405408   -0.107968    1.397789
      7          8           0        1.232292   -1.205290   -0.819358
      8          8           0        1.349028    1.223894   -0.707826
      9          1           0        1.994358    1.882337    0.103598
 ---------------------------------------------------------------------

 SCF Done:  E(RB3LYP) =  -961.930811657     A.U. after   15 cycles

 The electronic state is 1-A.
 Alpha  occ. eigenvalues --  -89.17270 -24.78599 -24.76066 -24.75762 -19.23745
 Alpha  occ. eigenvalues --  -19.21189 -19.19620 -10.50159  -8.19998  -6.16481
 Alpha  occ. eigenvalues --   -6.16369  -6.16313  -1.32549  -1.24925  -1.22552
 Alpha  occ. eigenvalues --   -1.20349  -1.07431  -1.02031  -0.79372  -0.68093
 Alpha  occ. eigenvalues --   -0.61534  -0.60653  -0.59390  -0.55106  -0.51192
 Alpha  occ. eigenvalues --   -0.49731  -0.48739  -0.48101  -0.46184  -0.45534
 Alpha  occ. eigenvalues --   -0.44513  -0.42921  -0.40486  -0.38972  -0.36978
 Alpha  occ. eigenvalues --   -0.35659  -0.34419
 Alpha virt. eigenvalues --   -0.06144  -0.03221   0.00114   0.01772   0.08651
 Alpha virt. eigenvalues --    0.11491   0.13702   0.19247   0.28480   0.31093
 Alpha virt. eigenvalues --    0.33799   0.40175   0.45776   0.49707   0.51853

 Mulliken charges:
               1
     1  C    0.625961
     2  F   -0.253653
     3  F   -0.214639
     4  F   -0.264114
     5  S    1.171331
     6  O   -0.488131
     7  O   -0.364566
     8  O   -0.627602
     9  H    0.415414
 Sum of Mulliken charges =  -0.00000

 Dipole moment (field-independent basis, Debye):
    X=              0.1919    Y=              2.1394    Z=              0.5506  Tot=              2.2174
 Quadrupole moment (field-independent basis, Debye-Ang):
   XX=            -48.1643   YY=            -46.6164   ZZ=            -53.8405
   XY=              4.8757   XZ=              0.3734   YZ=              1.2036

 Normal termination of Gaussian 16 at Thu Mar 20 00:10:36 2025.
