 Gaussian 16, Revision C.01,
 Gaussian 16:  ES64L-G16RevC.01  3-Jul-2019

 -----------------------------------------
 # B3LYP/6-31G(d) pop=full density=current
 -----------------------------------------

 -----------------
 PFMS Time step 25
 -----------------
 Symbolic Z-matrix:
 Charge =  0 Multiplicity = 1

                         Standard orientation:
 ---------------------------------------------------------------------
 Center     Atomic      Atomic             Coordinates (Angstroms)
 Number     Number       Type             X           Y           Z
 ---------------------------------------------------------------------
      1          6           0       -0.984775    0.047078    0.021851
      2          9           0       -1.500034   -0.042329   -1.280713
      3          9           0       -1.420962    1.222854    0.541997
      4          9           0       -1.674078   -0.968129    0.722656
      5         16           0        0.843624   -0.205770    0.062943
      6          8           0        1.394311    0.035873    1.398887
      7          8           0        1.248759   -1.284336   -0.704419
      8          8           0        1.329868    1.151464   -0.809503
      9          1           0        1.982843    1.874294   -0.073366
 ---------------------------------------------------------------------

 SCF Done:  E(RB3LYP) =  -961.940692655     A.U. after   14 cycles

 The electronic state is 1-A.
 Alpha  occ. eigenvalues --  -89.17283 -24.78188 -24.76269 -24.76103 -19.24049
 Alpha  occ. eigenvalues --  -19.20824 -19.19476 -10.50075  -8.19940  -6.16441
 Alpha  occ. eigenvalues --   -6.16300  -6.16266  -1.32632  -1.25034  -1.23150
 Alpha  occ. eigenvalues --   -1.19595  -1.07169  -1.02745  -0.79371  -0.68185
 Alpha  occ. eigenvalues --   -0.61611  -0.60918  -0.59633  -0.54990  -0.51074
 Alpha  occ. eigenvalues --   -0.49505  -0.48828  -0.48348  -0.46322  -0.45594
 Alpha  occ. eigenvalues --   -0.44767  -0.43161  -0.40316  -0.38537  -0.37057
 Alpha  occ. eigenvalues --   -0.35791  -0.34322
 Alpha virt. eigenvalues --   -0.06141  -0.02763   0.00637   0.01955   0.09094
 Alpha virt. eigenvalues --    0.11920   0.14213   0.19129   0.28454   0.31153
 Alpha virt. eigenvalues --    0.33931   0.39762   0.45872   0.49493   0.51744

 Mulliken charges:
               1
     1  C    0.627228
     2  F   -0.249292
     3  F   -0.221219
     4  F   -0.257461
     5  S    1.169900
     6  O   -0.488807
     7  O   -0.379876
     8  O   -0.623137
     9  H    0.422664
 Sum of Mulliken charges =  -0.00000

 Dipole moment (field-independent basis, Debye):
    X=              0.1613    Y=              2.2596    Z=              0.2921  Tot=              2.2841
 Quadrupole moment (field-independent basis, Debye-Ang):
   XX=            -47.9943   YY=            -46.5467   ZZ=            -53.9743
   XY=              5.2920   XZ=             -0.0825   YZ=              0.3421

 Normal termination of Gaussian 16 at Thu Mar 20 00:09:58 2025.
