 Gaussian 16, Revision C.01,
 Gaussian 16:  ES64L-G16RevC.01  3-Jul-2019

 -----------------------------------
 # B3LYP/6-31G(d) ADMP int=ultrafine
 -----------------------------------

 --------------------------------------------------------
 SO3 ADMP thermal decomposition simulation targeting 600K
 --------------------------------------------------------
 Symbolic Z-matrix:
 Charge =  0 Multiplicity = 1

 SCF Done:  E(RB3LYP) =  -623.565561266     A.U. after   24 cycles
 SCF Done:  E(RB3LYP) =  -623.565852127     A.U. after    1 cycles
 SCF Done:  E(RB3LYP) =  -623.565953667     A.U. after    1 cycles
 SCF Done:  E(RB3LYP) =  -623.566072775     A.U. after    1 cycles
 SCF Done:  E(RB3LYP) =  -623.566352897     A.U. after    1 cycles
 SCF Done:  E(RB3LYP) =  -623.566792903     A.U. after    1 cycles
 SCF Done:  E(RB3LYP) =  -623.567311539     A.U. after    1 cycles
 SCF Done:  E(RB3LYP) =  -623.567849182     A.U. after    1 cycles
 SCF Done:  E(RB3LYP) =  -623.568395314     A.U. after    1 cycles
 SCF Done:  E(RB3LYP) =  -623.568951952     A.U. after    1 cycles
 SCF Done:  E(RB3LYP) =  -623.587739386     A.U. after    1 cycles
 SCF Done:  E(RB3LYP) =  -623.588030583     A.U. after    1 cycles
 SCF Done:  E(RB3LYP) =  -623.588302503     A.U. after    1 cycles
 SCF Done:  E(RB3LYP) =  -623.588550876     A.U. after    1 cycles
 SCF Done:  E(RB3LYP) =  -623.588762594     A.U. after    1 cycles
 SCF Done:  E(RB3LYP) =  -623.588947154     A.U. after    1 cycles
 SCF Done:  E(RB3LYP) =  -623.589124253     A.U. after    1 cycles
 SCF Done:  E(RB3LYP) =  -623.589283904     A.U. after    1 cycles
 SCF Done:  E(RB3LYP) =  -623.589379583     A.U. after    1 cycles
 SCF Done:  E(RB3LYP) =  -623.589371597     A.U. after    1 cycles

                          Input orientation:
 ---------------------------------------------------------------------
 Center     Atomic      Atomic             Coordinates (Angstroms)
 Number     Number       Type             X           Y           Z
 ---------------------------------------------------------------------
      1         16           0        0.065341    0.078740   -0.415373
      2          8           0       -0.563176    1.143938    0.347453
      3          8           0        1.351280    0.012756    0.334427
      4          8           0       -0.918714   -1.314086    0.148404
 ---------------------------------------------------------------------

 Alpha  occ. eigenvalues --  -89.15911 -19.23774 -19.23774 -19.23774  -8.19096
 Alpha  occ. eigenvalues --   -6.15404  -6.15390  -6.15390  -1.10619  -0.99003
 Alpha  occ. eigenvalues --   -0.99003  -0.70575  -0.50138  -0.50138  -0.50100
 Alpha  occ. eigenvalues --   -0.37497  -0.37497  -0.33548  -0.33548  -0.31747
 Alpha virt. eigenvalues --   -0.28304  -0.06484  -0.06484   0.04855   0.23486
 Alpha virt. eigenvalues --    0.29326   0.29326   0.30394   0.55459   0.55459
 Alpha virt. eigenvalues --    0.56939   0.76490   0.76490   0.87485   0.89294

 Mulliken charges:
               1
     1  S    1.087616
     2  O   -0.368532
     3  O   -0.379000
     4  O   -0.340084
 Sum of Mulliken charges =  -0.00000

 Dipole moment (field-independent basis, Debye):
    X=              0.1746    Y=              0.1528    Z=             -2.3601  Tot=              2.3715
 Quadrupole moment (field-independent basis, Debye-Ang):
   XX=            -31.3922   YY=            -30.9359   ZZ=            -24.2891
   XY=             -0.0020   XZ=             -0.7951   YZ=             -1.2569

 Normal termination of Gaussian 16 at Wed Mar 19 15:16:26 2025.
