 Gaussian 16, Revision C.01,
 Gaussian 16:  ES64L-G16RevC.01  3-Jul-2019

 ---------------------------------------------------
 # B3LYP/6-31G(d) ADMP int=ultrafine Temperature=800
 ---------------------------------------------------

 ---------------------------------------------------------
 CF2O ADMP thermal decomposition simulation targeting 800K
 ---------------------------------------------------------
 Symbolic Z-matrix:
 Charge =  0 Multiplicity = 1

 SCF Done:  E(RB3LYP) =  -312.995980883     A.U. after   12 cycles
 SCF Done:  E(RB3LYP) =  -312.994552333     A.U. after    1 cycles
 SCF Done:  E(RB3LYP) =  -312.992424535     A.U. after    1 cycles
 SCF Done:  E(RB3LYP) =  -312.991020499     A.U. after    1 cycles
 SCF Done:  E(RB3LYP) =  -312.990665218     A.U. after    1 cycles
 SCF Done:  E(RB3LYP) =  -312.990488690     A.U. after    1 cycles
 SCF Done:  E(RB3LYP) =  -312.989716073     A.U. after    1 cycles
 SCF Done:  E(RB3LYP) =  -312.988458811     A.U. after    1 cycles
 SCF Done:  E(RB3LYP) =  -312.987253087     A.U. after    1 cycles
 SCF Done:  E(RB3LYP) =  -312.986335488     A.U. after    1 cycles
 SCF Done:  E(RB3LYP) =  -312.950316519     A.U. after    1 cycles
 SCF Done:  E(RB3LYP) =  -312.949555336     A.U. after    1 cycles
 SCF Done:  E(RB3LYP) =  -312.948775709     A.U. after    1 cycles
 SCF Done:  E(RB3LYP) =  -312.947911393     A.U. after    1 cycles
 SCF Done:  E(RB3LYP) =  -312.946980012     A.U. after    1 cycles
 SCF Done:  E(RB3LYP) =  -312.946075581     A.U. after    1 cycles
 SCF Done:  E(RB3LYP) =  -312.945322850     A.U. after    1 cycles
 SCF Done:  E(RB3LYP) =  -312.944729971     A.U. after    1 cycles
 SCF Done:  E(RB3LYP) =  -312.944133216     A.U. after    1 cycles
 SCF Done:  E(RB3LYP) =  -312.943402472     A.U. after    1 cycles

                          Input orientation:
 ---------------------------------------------------------------------
 Center     Atomic      Atomic             Coordinates (Angstroms)
 Number     Number       Type             X           Y           Z
 ---------------------------------------------------------------------
      1          9           0        1.232408   -0.583118    0.056797
      2          6           0        0.117015    0.085842   -0.100871
      3          8           0        0.000047    1.348712   -0.070680
      4          9           0       -1.306359   -0.606594    0.066422
 ---------------------------------------------------------------------

 Alpha  occ. eigenvalues --  -24.78475 -24.78475 -19.19019 -10.45755  -1.32267
 Alpha  occ. eigenvalues --   -1.27367  -1.07763  -0.69052  -0.62442  -0.56555
 Alpha  occ. eigenvalues --   -0.53668  -0.48373  -0.47503  -0.45651  -0.38116
 Alpha  occ. eigenvalues --   -0.33459
 Alpha virt. eigenvalues --   -0.03377   0.05055   0.26111   0.31245   0.46438
 Alpha virt. eigenvalues --    0.47206   0.47636   0.58998   0.83686   0.94539
 Alpha virt. eigenvalues --    0.95291   1.04093   1.09810   1.11761   1.22097

 Mulliken charges:
               1
     1  F   -0.139450
     2  C    0.774721
     3  O   -0.344255
     4  F   -0.291016
 Sum of Mulliken charges =  -0.00000

 Dipole moment (field-independent basis, Debye):
    X=              1.3183    Y=             -1.1631    Z=             -0.1832  Tot=              1.7676
 Quadrupole moment (field-independent basis, Debye-Ang):
   XX=            -20.8555   YY=            -22.4388   ZZ=            -18.6895
   XY=             -0.5966   XZ=             -0.0090   YZ=              0.2866

 Normal termination of Gaussian 16 at Wed Mar 19 16:19:07 2025.
