 Gaussian 16, Revision C.01,
 Gaussian 16:  ES64L-G16RevC.01  3-Jul-2019

 -----------------------------------
 # B3LYP/6-31G(d) ADMP int=ultrafine
 -----------------------------------

 --------------------------------------------------------
 HCl ADMP thermal decomposition simulation targeting 600K
 --------------------------------------------------------
 Symbolic Z-matrix:
 Charge =  0 Multiplicity = 1

 SCF Done:  E(RB3LYP) =  -460.792819072     A.U. after    9 cycles
 SCF Done:  E(RB3LYP) =  -460.793950337     A.U. after    1 cycles
 SCF Done:  E(RB3LYP) =  -460.794149492     A.U. after    1 cycles
 SCF Done:  E(RB3LYP) =  -460.793685804     A.U. after    1 cycles
 SCF Done:  E(RB3LYP) =  -460.792864816     A.U. after    1 cycles
 SCF Done:  E(RB3LYP) =  -460.791829204     A.U. after    1 cycles
 SCF Done:  E(RB3LYP) =  -460.790508712     A.U. after    1 cycles
 SCF Done:  E(RB3LYP) =  -460.788681263     A.U. after    1 cycles
 SCF Done:  E(RB3LYP) =  -460.786064048     A.U. after    1 cycles
 SCF Done:  E(RB3LYP) =  -460.782421467     A.U. after    1 cycles
 SCF Done:  E(RB3LYP) =  -460.793654275     A.U. after    1 cycles
 SCF Done:  E(RB3LYP) =  -460.794472813     A.U. after    1 cycles
 SCF Done:  E(RB3LYP) =  -460.794568360     A.U. after    1 cycles
 SCF Done:  E(RB3LYP) =  -460.794001635     A.U. after    1 cycles
 SCF Done:  E(RB3LYP) =  -460.792896825     A.U. after    1 cycles
 SCF Done:  E(RB3LYP) =  -460.791382442     A.U. after    1 cycles
 SCF Done:  E(RB3LYP) =  -460.789550437     A.U. after    1 cycles
 SCF Done:  E(RB3LYP) =  -460.787466954     A.U. after    1 cycles
 SCF Done:  E(RB3LYP) =  -460.785186707     A.U. after    1 cycles
 SCF Done:  E(RB3LYP) =  -460.782734221     A.U. after    1 cycles

                          Input orientation:
 ---------------------------------------------------------------------
 Center     Atomic      Atomic             Coordinates (Angstroms)
 Number     Number       Type             X           Y           Z
 ---------------------------------------------------------------------
      1         17           0        0.040768   -0.000000    0.000000
      2          1           0       -1.414535    0.000000   -0.000000
 ---------------------------------------------------------------------

 Alpha  occ. eigenvalues -- -101.55929  -9.47542  -7.23996  -7.22920  -7.22920
 Alpha  occ. eigenvalues --   -0.83819  -0.46672  -0.33010  -0.33010
 Alpha virt. eigenvalues --   -0.01620   0.37781   0.42222   0.43697   0.43697
 Alpha virt. eigenvalues --    0.66939   0.83720   0.83720   0.86548   0.86548
 Alpha virt. eigenvalues --    1.10900   4.19914

 Mulliken charges:
               1
     1  Cl  -0.273242
     2  H    0.273242
 Sum of Mulliken charges =   0.00000

 Dipole moment (field-independent basis, Debye):
    X=             -1.8457    Y=              0.0000    Z=              0.0000  Tot=              1.8457
 Quadrupole moment (field-independent basis, Debye-Ang):
   XX=             -9.6588   YY=            -13.9989   ZZ=            -13.9989
   XY=              0.0000   XZ=             -0.0000   YZ=             -0.0000

 Normal termination of Gaussian 16 at Wed Mar 19 15:07:18 2025.
