 Gaussian 16, Revision C.01,
 Gaussian 16:  ES64L-G16RevC.01  3-Jul-2019

 -----------------------------------
 # B3LYP/6-31G(d) ADMP int=ultrafine
 -----------------------------------

 --------------------------------------------------------
 SO2 ADMP thermal decomposition simulation targeting 600K
 --------------------------------------------------------
 Symbolic Z-matrix:
 Charge =  0 Multiplicity = 1

 SCF Done:  E(RB3LYP) =  -548.530573842     A.U. after   14 cycles
 SCF Done:  E(RB3LYP) =  -548.532538266     A.U. after    1 cycles
 SCF Done:  E(RB3LYP) =  -548.534247082     A.U. after    1 cycles
 SCF Done:  E(RB3LYP) =  -548.535988550     A.U. after    1 cycles
 SCF Done:  E(RB3LYP) =  -548.537950492     A.U. after    1 cycles
 SCF Done:  E(RB3LYP) =  -548.540097111     A.U. after    1 cycles
 SCF Done:  E(RB3LYP) =  -548.542281519     A.U. after    1 cycles
 SCF Done:  E(RB3LYP) =  -548.544419629     A.U. after    1 cycles
 SCF Done:  E(RB3LYP) =  -548.546528346     A.U. after    1 cycles
 SCF Done:  E(RB3LYP) =  -548.548637782     A.U. after    1 cycles
 SCF Done:  E(RB3LYP) =  -548.584695173     A.U. after    1 cycles
 SCF Done:  E(RB3LYP) =  -548.583999270     A.U. after    1 cycles
 SCF Done:  E(RB3LYP) =  -548.583194285     A.U. after    1 cycles
 SCF Done:  E(RB3LYP) =  -548.582316261     A.U. after    1 cycles
 SCF Done:  E(RB3LYP) =  -548.581313484     A.U. after    1 cycles
 SCF Done:  E(RB3LYP) =  -548.580095385     A.U. after    1 cycles
 SCF Done:  E(RB3LYP) =  -548.578627348     A.U. after    1 cycles
 SCF Done:  E(RB3LYP) =  -548.576969317     A.U. after    1 cycles
 SCF Done:  E(RB3LYP) =  -548.575217578     A.U. after    1 cycles
 SCF Done:  E(RB3LYP) =  -548.573415108     A.U. after    1 cycles

                          Input orientation:
 ---------------------------------------------------------------------
 Center     Atomic      Atomic             Coordinates (Angstroms)
 Number     Number       Type             X           Y           Z
 ---------------------------------------------------------------------
      1          8           0       -1.163654   -0.507875   -0.000000
      2         16           0       -0.063137    0.320058    0.000000
      3          8           0        1.289858   -0.131885    0.000000
 ---------------------------------------------------------------------

 Alpha  occ. eigenvalues --  -89.09162 -19.22763 -19.22762  -8.13043  -6.09399
 Alpha  occ. eigenvalues --   -6.09334  -6.08988  -1.04855  -0.98120  -0.69068
 Alpha  occ. eigenvalues --   -0.47397  -0.45336  -0.44304  -0.33592  -0.33129
 Alpha  occ. eigenvalues --   -0.33127
 Alpha virt. eigenvalues --   -0.18385  -0.02884  -0.01894   0.22425   0.29734
 Alpha virt. eigenvalues --    0.30771   0.32041   0.60329   0.60986   0.62507
 Alpha virt. eigenvalues --    0.73483   0.77794   0.91316   0.94138   0.95440

 Mulliken charges:
               1
     1  O   -0.382037
     2  S    0.791828
     3  O   -0.409791
 Sum of Mulliken charges =   0.00000

 Dipole moment (field-independent basis, Debye):
    X=             -0.4680    Y=              1.2972    Z=             -0.0000  Tot=              1.3790
 Quadrupole moment (field-independent basis, Debye-Ang):
   XX=            -26.5034   YY=            -22.5166   ZZ=            -20.3783
   XY=             -0.6045   XZ=              0.0000   YZ=             -0.0000

 Normal termination of Gaussian 16 at Wed Mar 19 15:15:03 2025.
