 Gaussian 16, Revision C.01,
 Gaussian 16:  ES64L-G16RevC.01  3-Jul-2019

 -----------------------------------------
 # B3LYP/6-31G(d) pop=full density=current
 -----------------------------------------

 -----------------
 CF2O Time step 10
 -----------------
 Symbolic Z-matrix:
 Charge =  0 Multiplicity = 1

                         Standard orientation:
 ---------------------------------------------------------------------
 Center     Atomic      Atomic             Coordinates (Angstroms)
 Number     Number       Type             X           Y           Z
 ---------------------------------------------------------------------
      1          9           0       -1.155318   -0.636045   -0.005103
      2          6           0       -0.032055    0.059262    0.022369
      3          8           0       -0.042661    1.304726   -0.005815
      4          9           0        1.214610   -0.563219   -0.004642
 ---------------------------------------------------------------------

 SCF Done:  E(RB3LYP) =  -312.986125804     A.U. after   14 cycles

 The electronic state is 1-A.
 Alpha  occ. eigenvalues --  -24.80061 -24.77215 -19.19538 -10.46417  -1.32373
 Alpha  occ. eigenvalues --   -1.25808  -1.06657  -0.69221  -0.61754  -0.56217
 Alpha  occ. eigenvalues --   -0.53727  -0.47887  -0.47308  -0.45335  -0.37844
 Alpha  occ. eigenvalues --   -0.33362
 Alpha virt. eigenvalues --   -0.04859   0.02659   0.23731   0.30010   0.46585
 Alpha virt. eigenvalues --    0.47460   0.47867   0.56554   0.83982   0.94221
 Alpha virt. eigenvalues --    0.94891   1.04119   1.08987   1.11800   1.22321

 Mulliken charges:
               1
     1  F   -0.173797
     2  C    0.773573
     3  O   -0.376371
     4  F   -0.223404
 Sum of Mulliken charges =  -0.00000

 Dipole moment (field-independent basis, Debye):
    X=             -0.3098    Y=             -1.6147    Z=              0.0684  Tot=              1.6456
 Quadrupole moment (field-independent basis, Debye-Ang):
   XX=            -20.4870   YY=            -22.5703   ZZ=            -18.5182
   XY=              0.2337   XZ=             -0.0040   YZ=             -0.0071

 Normal termination of Gaussian 16 at Thu Mar 20 00:07:33 2025.
