 Gaussian 16, Revision C.01,
 Gaussian 16:  ES64L-G16RevC.01  3-Jul-2019

 -----------------------------------------
 # B3LYP/6-31G(d) pop=full density=current
 -----------------------------------------

 -----------------
 CF2O Time step 20
 -----------------
 Symbolic Z-matrix:
 Charge =  0 Multiplicity = 1

                         Standard orientation:
 ---------------------------------------------------------------------
 Center     Atomic      Atomic             Coordinates (Angstroms)
 Number     Number       Type             X           Y           Z
 ---------------------------------------------------------------------
      1          9           0       -1.156506   -0.663183   -0.010033
      2          6           0       -0.059042    0.053393    0.042230
      3          8           0       -0.070972    1.315372   -0.010887
      4          9           0        1.258954   -0.541633   -0.008442
 ---------------------------------------------------------------------

 SCF Done:  E(RB3LYP) =  -312.974325351     A.U. after   14 cycles

 The electronic state is 1-A.
 Alpha  occ. eigenvalues --  -24.81231 -24.76041 -19.20096 -10.46910  -1.33232
 Alpha  occ. eigenvalues --   -1.23565  -1.06091  -0.69648  -0.60854  -0.56398
 Alpha  occ. eigenvalues --   -0.54044  -0.46926  -0.46854  -0.44792  -0.37767
 Alpha  occ. eigenvalues --   -0.33427
 Alpha virt. eigenvalues --   -0.06210   0.00699   0.21600   0.29167   0.46840
 Alpha virt. eigenvalues --    0.47580   0.48300   0.55223   0.84061   0.93852
 Alpha virt. eigenvalues --    0.94423   1.04093   1.08365   1.11810   1.22240

 Mulliken charges:
               1
     1  F   -0.157932
     2  C    0.773694
     3  O   -0.373514
     4  F   -0.242248
 Sum of Mulliken charges =  -0.00000

 Dipole moment (field-independent basis, Debye):
    X=             -0.5824    Y=             -1.5993    Z=              0.1257  Tot=              1.7067
 Quadrupole moment (field-independent basis, Debye-Ang):
   XX=            -20.5959   YY=            -22.5361   ZZ=            -18.5832
   XY=              0.4122   XZ=             -0.0135   YZ=             -0.0164

 Normal termination of Gaussian 16 at Thu Mar 20 00:07:45 2025.
