 Gaussian 16, Revision C.01,
 Gaussian 16:  ES64L-G16RevC.01  3-Jul-2019

 -----------------------------------------
 # B3LYP/6-31G(d) pop=full density=current
 -----------------------------------------

 -----------------
 CF2O Time step 30
 -----------------
 Symbolic Z-matrix:
 Charge =  0 Multiplicity = 1

                         Standard orientation:
 ---------------------------------------------------------------------
 Center     Atomic      Atomic             Coordinates (Angstroms)
 Number     Number       Type             X           Y           Z
 ---------------------------------------------------------------------
      1          9           0       -1.160238   -0.684160   -0.015033
      2          6           0       -0.083669    0.051768    0.061353
      3          8           0       -0.092007    1.322676   -0.015828
      4          9           0        1.297802   -0.526064   -0.011800
 ---------------------------------------------------------------------

 SCF Done:  E(RB3LYP) =  -312.962333020     A.U. after   14 cycles

 The electronic state is 1-A.
 Alpha  occ. eigenvalues --  -24.82117 -24.74876 -19.20728 -10.47295  -1.33969
 Alpha  occ. eigenvalues --   -1.21360  -1.05978  -0.70076  -0.59944  -0.56701
 Alpha  occ. eigenvalues --   -0.54341  -0.46584  -0.45724  -0.43958  -0.37861
 Alpha  occ. eigenvalues --   -0.33648
 Alpha virt. eigenvalues --   -0.07545  -0.00918   0.19739   0.28559   0.46883
 Alpha virt. eigenvalues --    0.47606   0.49003   0.54609   0.83936   0.93439
 Alpha virt. eigenvalues --    0.93942   1.04024   1.07940   1.11785   1.22015

 Mulliken charges:
               1
     1  F   -0.146641
     2  C    0.769404
     3  O   -0.366618
     4  F   -0.256146
 Sum of Mulliken charges =  -0.00000

 Dipole moment (field-independent basis, Debye):
    X=             -0.8365    Y=             -1.5395    Z=              0.1794  Tot=              1.7612
 Quadrupole moment (field-independent basis, Debye-Ang):
   XX=            -20.7185   YY=            -22.4667   ZZ=            -18.6263
   XY=              0.5569   XZ=             -0.0276   YZ=             -0.0252

 Normal termination of Gaussian 16 at Thu Mar 20 00:07:57 2025.
