 Gaussian 16, Revision C.01,
 Gaussian 16:  ES64L-G16RevC.01  3-Jul-2019

 -----------------------------------------
 # B3LYP/6-31G(d) pop=full density=current
 -----------------------------------------

 ----------------
 CF2O Time step 0
 ----------------
 Symbolic Z-matrix:
 Charge =  0 Multiplicity = 1

                         Standard orientation:
 ---------------------------------------------------------------------
 Center     Atomic      Atomic             Coordinates (Angstroms)
 Number     Number       Type             X           Y           Z
 ---------------------------------------------------------------------
      1          9           0       -1.157505   -0.600437   -0.000463
      2          6           0       -0.003199    0.068312    0.002136
      3          8           0       -0.004576    1.290933   -0.000564
      4          9           0        1.163705   -0.592601   -0.000459
 ---------------------------------------------------------------------

 SCF Done:  E(RB3LYP) =  -312.995291907     A.U. after   13 cycles

 The electronic state is 1-A.
 Alpha  occ. eigenvalues --  -24.78641 -24.78356 -19.19061 -10.45822  -1.32189
 Alpha  occ. eigenvalues --   -1.27318  -1.07637  -0.69046  -0.62401  -0.56492
 Alpha  occ. eigenvalues --   -0.53653  -0.48365  -0.47511  -0.45630  -0.38082
 Alpha  occ. eigenvalues --   -0.33441
 Alpha virt. eigenvalues --   -0.03514   0.04828   0.25909   0.31110   0.46429
 Alpha virt. eigenvalues --    0.47236   0.47652   0.58719   0.83723   0.94515
 Alpha virt. eigenvalues --    0.95262   1.04096   1.09735   1.11761   1.22131

 Mulliken charges:
               1
     1  F   -0.193178
     2  C    0.766357
     3  O   -0.374695
     4  F   -0.198483
 Sum of Mulliken charges =  -0.00000

 Dipole moment (field-independent basis, Debye):
    X=             -0.0303    Y=             -1.5928    Z=              0.0067  Tot=              1.5931
 Quadrupole moment (field-independent basis, Debye-Ang):
   XX=            -20.3973   YY=            -22.5574   ZZ=            -18.4326
   XY=              0.0239   XZ=             -0.0000   YZ=             -0.0004

 Normal termination of Gaussian 16 at Thu Mar 20 00:07:20 2025.
