 Gaussian 16, Revision C.01,
 Gaussian 16:  ES64L-G16RevC.01  3-Jul-2019

 -----------------------------------------
 # B3LYP/6-31G(d) pop=full density=current
 -----------------------------------------

 -----------------
 CF2O Time step 35
 -----------------
 Symbolic Z-matrix:
 Charge =  0 Multiplicity = 1

                         Standard orientation:
 ---------------------------------------------------------------------
 Center     Atomic      Atomic             Coordinates (Angstroms)
 Number     Number       Type             X           Y           Z
 ---------------------------------------------------------------------
      1          9           0       -1.162818   -0.692891   -0.017433
      2          6           0       -0.094914    0.052845    0.070335
      3          8           0       -0.100443    1.324931   -0.018217
      4          9           0        1.315377   -0.520055   -0.013264
 ---------------------------------------------------------------------

 SCF Done:  E(RB3LYP) =  -312.956915116     A.U. after   15 cycles

 The electronic state is 1-A.
 Alpha  occ. eigenvalues --  -24.82443 -24.74309 -19.21071 -10.47445  -1.34208
 Alpha  occ. eigenvalues --   -1.20341  -1.06106  -0.70235  -0.59531  -0.56821
 Alpha  occ. eigenvalues --   -0.54434  -0.46495  -0.45155  -0.43474  -0.37970
 Alpha  occ. eigenvalues --   -0.33819
 Alpha virt. eigenvalues --   -0.08186  -0.01579   0.18917   0.28359   0.46831
 Alpha virt. eigenvalues --    0.47588   0.49406   0.54545   0.83789   0.93222
 Alpha virt. eigenvalues --    0.93719   1.03987   1.07796   1.11775   1.21899

 Mulliken charges:
               1
     1  F   -0.143032
     2  C    0.766463
     3  O   -0.361718
     4  F   -0.261713
 Sum of Mulliken charges =  -0.00000

 Dipole moment (field-independent basis, Debye):
    X=             -0.9533    Y=             -1.4909    Z=              0.2048  Tot=              1.7815
 Quadrupole moment (field-independent basis, Debye-Ang):
   XX=            -20.7846   YY=            -22.4214   ZZ=            -18.6392
   XY=              0.6158   XZ=             -0.0359   YZ=             -0.0280

 Normal termination of Gaussian 16 at Thu Mar 20 00:08:03 2025.
