 Gaussian 16, Revision C.01,
 Gaussian 16:  ES64L-G16RevC.01  3-Jul-2019

 -----------------------------------------
 # B3LYP/6-31G(d) pop=full density=current
 -----------------------------------------

 -----------------
 CF2O Time step 15
 -----------------
 Symbolic Z-matrix:
 Charge =  0 Multiplicity = 1

                         Standard orientation:
 ---------------------------------------------------------------------
 Center     Atomic      Atomic             Coordinates (Angstroms)
 Number     Number       Type             X           Y           Z
 ---------------------------------------------------------------------
      1          9           0       -1.155579   -0.650427   -0.007559
      2          6           0       -0.045828    0.055746    0.032424
      3          8           0       -0.057760    1.310510   -0.008383
      4          9           0        1.237473   -0.551634   -0.006606
 ---------------------------------------------------------------------

 SCF Done:  E(RB3LYP) =  -312.980351715     A.U. after   14 cycles

 The electronic state is 1-A.
 Alpha  occ. eigenvalues --  -24.80684 -24.76632 -19.19805 -10.46678  -1.32797
 Alpha  occ. eigenvalues --   -1.24710  -1.06308  -0.69424  -0.61321  -0.56275
 Alpha  occ. eigenvalues --   -0.53876  -0.47438  -0.47096  -0.45100  -0.37779
 Alpha  occ. eigenvalues --   -0.33370
 Alpha virt. eigenvalues --   -0.05539   0.01646   0.22640   0.29557   0.46729
 Alpha virt. eigenvalues --    0.47532   0.48046   0.55779   0.84052   0.94045
 Alpha virt. eigenvalues --    0.94663   1.04110   1.08651   1.11811   1.22309

 Mulliken charges:
               1
     1  F   -0.165275
     2  C    0.774348
     3  O   -0.375582
     4  F   -0.233490
 Sum of Mulliken charges =  -0.00000

 Dipole moment (field-independent basis, Debye):
    X=             -0.4480    Y=             -1.6135    Z=              0.0977  Tot=              1.6774
 Quadrupole moment (field-independent basis, Debye-Ang):
   XX=            -20.5390   YY=            -22.5589   ZZ=            -18.5537
   XY=              0.3271   XZ=             -0.0081   YZ=             -0.0117

 Normal termination of Gaussian 16 at Thu Mar 20 00:07:39 2025.
