 Gaussian 16, Revision C.01,
 Gaussian 16:  ES64L-G16RevC.01  3-Jul-2019

 -----------------------------------------
 # B3LYP/6-31G(d) pop=full density=current
 -----------------------------------------

 -----------------
 CF2O Time step 45
 -----------------
 Symbolic Z-matrix:
 Charge =  0 Multiplicity = 1

                         Standard orientation:
 ---------------------------------------------------------------------
 Center     Atomic      Atomic             Coordinates (Angstroms)
 Number     Number       Type             X           Y           Z
 ---------------------------------------------------------------------
      1          9           0       -1.168798   -0.708060   -0.021919
      2          6           0       -0.115297    0.059180    0.087082
      3          8           0       -0.114503    1.326611   -0.022905
      4          9           0        1.347443   -0.510603   -0.015775
 ---------------------------------------------------------------------

 SCF Done:  E(RB3LYP) =  -312.947917076     A.U. after   16 cycles

 The electronic state is 1-A.
 Alpha  occ. eigenvalues --  -24.82864 -24.73203 -19.21813 -10.47664  -1.34372
 Alpha  occ. eigenvalues --   -1.18488  -1.06747  -0.70389  -0.58801  -0.56922
 Alpha  occ. eigenvalues --   -0.54515  -0.46399  -0.44159  -0.42469  -0.38279
 Alpha  occ. eigenvalues --   -0.34275
 Alpha virt. eigenvalues --   -0.09388  -0.02609   0.17438   0.28186   0.46624
 Alpha virt. eigenvalues --    0.47498   0.50267   0.54838   0.83315   0.92774
 Alpha virt. eigenvalues --    0.93322   1.03947   1.07597   1.11790   1.21712

 Mulliken charges:
               1
     1  F   -0.140056
     2  C    0.760145
     3  O   -0.348992
     4  F   -0.271098
 Sum of Mulliken charges =  -0.00000

 Dipole moment (field-independent basis, Debye):
    X=             -1.1651    Y=             -1.3541    Z=              0.2536  Tot=              1.8042
 Quadrupole moment (field-independent basis, Debye-Ang):
   XX=            -20.9271   YY=            -22.3126   ZZ=            -18.6484
   XY=              0.7079   XZ=             -0.0544   YZ=             -0.0285

 Normal termination of Gaussian 16 at Thu Mar 20 00:08:16 2025.
