 Gaussian 16, Revision C.01,
 Gaussian 16:  ES64L-G16RevC.01  3-Jul-2019

 -----------------------------------------
 # B3LYP/6-31G(d) pop=full density=current
 -----------------------------------------

 -----------------
 CF2O Time step 25
 -----------------
 Symbolic Z-matrix:
 Charge =  0 Multiplicity = 1

                         Standard orientation:
 ---------------------------------------------------------------------
 Center     Atomic      Atomic             Coordinates (Angstroms)
 Number     Number       Type             X           Y           Z
 ---------------------------------------------------------------------
      1          9           0       -1.158159   -0.674248   -0.012555
      2          6           0       -0.071743    0.051965    0.051963
      3          8           0       -0.082154    1.319471   -0.013385
      4          9           0        1.279014   -0.533258   -0.010189
 ---------------------------------------------------------------------

 SCF Done:  E(RB3LYP) =  -312.968193449     A.U. after   14 cycles

 The electronic state is 1-A.
 Alpha  occ. eigenvalues --  -24.81715 -24.75453 -19.20403 -10.47117  -1.33641
 Alpha  occ. eigenvalues --   -1.22436  -1.05973  -0.69876  -0.60389  -0.56554
 Alpha  occ. eigenvalues --   -0.54209  -0.46714  -0.46309  -0.44404  -0.37791
 Alpha  occ. eigenvalues --   -0.33517
 Alpha virt. eigenvalues --   -0.06884  -0.00159   0.20632   0.28831   0.46891
 Alpha virt. eigenvalues --    0.47604   0.48628   0.54830   0.84027   0.93650
 Alpha virt. eigenvalues --    0.94178   1.04062   1.08127   1.11799   1.22134

 Mulliken charges:
               1
     1  F   -0.151597
     2  C    0.771902
     3  O   -0.370561
     4  F   -0.249744
 Sum of Mulliken charges =  -0.00000

 Dipole moment (field-independent basis, Debye):
    X=             -0.7132    Y=             -1.5755    Z=              0.1531  Tot=              1.7362
 Quadrupole moment (field-independent basis, Debye-Ang):
   XX=            -20.6555   YY=            -22.5052   ZZ=            -18.6076
   XY=              0.4891   XZ=             -0.0201   YZ=             -0.0211

 Normal termination of Gaussian 16 at Thu Mar 20 00:07:51 2025.
