 Gaussian 16, Revision C.01,
 Gaussian 16:  ES64L-G16RevC.01  3-Jul-2019

 -----------------------------------------
 # B3LYP/6-31G(d) pop=full density=current
 -----------------------------------------

 -----------------
 CF2O Time step 40
 -----------------
 Symbolic Z-matrix:
 Charge =  0 Multiplicity = 1

                         Standard orientation:
 ---------------------------------------------------------------------
 Center     Atomic      Atomic             Coordinates (Angstroms)
 Number     Number       Type             X           Y           Z
 ---------------------------------------------------------------------
      1          9           0       -1.165692   -0.700848   -0.019725
      2          6           0       -0.105400    0.055355    0.078883
      3          8           0       -0.107946    1.326224   -0.020566
      4          9           0        1.331910   -0.514921   -0.014583
 ---------------------------------------------------------------------

 SCF Done:  E(RB3LYP) =  -312.952115281     A.U. after   16 cycles

 The electronic state is 1-A.
 Alpha  occ. eigenvalues --  -24.82688 -24.73752 -19.21434 -10.47568  -1.34337
 Alpha  occ. eigenvalues --   -1.19385  -1.06367  -0.70338  -0.59150  -0.56893
 Alpha  occ. eigenvalues --   -0.54487  -0.46438  -0.44628  -0.42974  -0.38117
 Alpha  occ. eigenvalues --   -0.34031
 Alpha virt. eigenvalues --   -0.08801  -0.02142   0.18152   0.28236   0.46741
 Alpha virt. eigenvalues --    0.47551   0.49827   0.54628   0.83580   0.92999
 Alpha virt. eigenvalues --    0.93513   1.03960   1.07684   1.11775   1.21798

 Mulliken charges:
               1
     1  F   -0.140918
     2  C    0.763358
     3  O   -0.355806
     4  F   -0.266634
 Sum of Mulliken charges =  -0.00000

 Dipole moment (field-independent basis, Debye):
    X=             -1.0622    Y=             -1.4286    Z=              0.2294  Tot=              1.7949
 Quadrupole moment (field-independent basis, Debye-Ang):
   XX=            -20.8544   YY=            -22.3697   ZZ=            -18.6465
   XY=              0.6658   XZ=             -0.0448   YZ=             -0.0292

 Normal termination of Gaussian 16 at Thu Mar 20 00:08:09 2025.
