 Gaussian 16, Revision C.01,
 Gaussian 16:  ES64L-G16RevC.01  3-Jul-2019

 -----------------------------------------
 # B3LYP/6-31G(d) pop=full density=current
 -----------------------------------------

 ----------------
 CF2O Time step 5
 ----------------
 Symbolic Z-matrix:
 Charge =  0 Multiplicity = 1

                         Standard orientation:
 ---------------------------------------------------------------------
 Center     Atomic      Atomic             Coordinates (Angstroms)
 Number     Number       Type             X           Y           Z
 ---------------------------------------------------------------------
      1          9           0       -1.155882   -0.619582   -0.002763
      2          6           0       -0.017972    0.063470    0.012402
      3          8           0       -0.025119    1.298244   -0.003247
      4          9           0        1.190192   -0.576727   -0.002619
 ---------------------------------------------------------------------

 SCF Done:  E(RB3LYP) =  -312.991188877     A.U. after   14 cycles

 The electronic state is 1-A.
 Alpha  occ. eigenvalues --  -24.79386 -24.77787 -19.19290 -10.46132  -1.32106
 Alpha  occ. eigenvalues --   -1.26742  -1.07098  -0.69086  -0.62123  -0.56278
 Alpha  occ. eigenvalues --   -0.53644  -0.48207  -0.47462  -0.45506  -0.37945
 Alpha  occ. eigenvalues --   -0.33385
 Alpha virt. eigenvalues --   -0.04187   0.03723   0.24838   0.30519   0.46464
 Alpha virt. eigenvalues --    0.47363   0.47743   0.57523   0.83873   0.94378
 Alpha virt. eigenvalues --    0.95093   1.04113   1.09356   1.11779   1.22262

 Mulliken charges:
               1
     1  F   -0.183017
     2  C    0.770999
     3  O   -0.376124
     4  F   -0.211858
 Sum of Mulliken charges =  -0.00000

 Dipole moment (field-independent basis, Debye):
    X=             -0.1716    Y=             -1.6077    Z=              0.0385  Tot=              1.6173
 Quadrupole moment (field-independent basis, Debye-Ang):
   XX=            -20.4395   YY=            -22.5705   ZZ=            -18.4780
   XY=              0.1334   XZ=             -0.0012   YZ=             -0.0033

 Normal termination of Gaussian 16 at Thu Mar 20 00:07:26 2025.
